                         Program Version 5.0.0 -  RELEASE  -
|  1> ! RIJCOSX PBE0 def2-SVP def2/J TightOpt Freq
|  2> %scf maxiter 600 end
|  3> %maxcore 1000
|  4> %pal nprocs 20 end
|  5> *xyz 0 1
|  6> O -1.507982 -1.792352 0.146175
|  7> O -1.507982 1.792352 0.146175
|  8> O 1.507982 -1.792352 -0.146175
|  9> O 1.507982 1.792352 -0.146175
| 10> Si -0.0 -1.263748 0.0
| 11> Si -0.0 1.263748 0.0
| 12> Mg -2.175375 -0.0 -0.347485
| 13> Mg 2.175375 0.0 0.347485
| 14> O -0.287856 -0.0 -1.173206
| 15> O 0.287856 0.0 1.173206
| 16> *
| 17>
| 18>                          ****END OF INPUT****
 Total Charge           Charge          ....    0
 Multiplicity           Mult            ....    1
 Number of Electrons    NEL             ....  100
FINAL SINGLE POINT ENERGY     -1429.352174745068
FINAL SINGLE POINT ENERGY     -1429.352435521236
FINAL SINGLE POINT ENERGY     -1429.352803872081
FINAL SINGLE POINT ENERGY     -1429.352822934173
FINAL SINGLE POINT ENERGY     -1429.352847216077
FINAL SINGLE POINT ENERGY     -1429.352848126437
                    ***********************HURRAY********************

CARTESIAN COORDINATES (ANGSTROEM)
---------------------------------
  O     -1.522076   -1.792290    0.147298
  O     -1.522076    1.792290    0.147296
  O      1.522077   -1.792289   -0.147298
  O      1.522077    1.792289   -0.147296
  Si    -0.000000   -1.278539   -0.000001
  Si     0.000000    1.278539   -0.000000
  Mg    -2.182887   -0.000000   -0.350804
  Mg     2.182887    0.000000    0.350806
  O     -0.292291   -0.000000   -1.172724
  O      0.292290   -0.000000    1.172724

 Multiplicity           Mult            ....    1
 Number of Electrons    NEL             ....  100
 Basis Dimension        Dim             ....  156

ORBITAL ENERGIES
----------------

  NO   OCC          E(Eh)            E(eV)
   0   2.0000     -66.296832     -1804.0285
   1   2.0000     -66.296720     -1804.0255
   2   2.0000     -46.993718     -1278.7641
   3   2.0000     -46.993708     -1278.7638
   4   2.0000     -19.195994      -522.3496
   5   2.0000     -19.195913      -522.3473
   6   2.0000     -19.170667      -521.6604
   7   2.0000     -19.170667      -521.6604
   8   2.0000     -19.170593      -521.6584
   9   2.0000     -19.170588      -521.6582
  10   2.0000      -5.375221      -146.2672
  11   2.0000      -5.375184      -146.2662
  12   2.0000      -3.715242      -101.0969
  13   2.0000      -3.715061      -101.0920
  14   2.0000      -3.715037      -101.0913
  15   2.0000      -3.715032      -101.0912
  16   2.0000      -3.710304      -100.9625
  17   2.0000      -3.710283      -100.9619
  18   2.0000      -3.215308       -87.4930
  19   2.0000      -3.215299       -87.4927
  20   2.0000      -1.943427       -52.8833
  21   2.0000      -1.943413       -52.8830
  22   2.0000      -1.940038       -52.7911
  23   2.0000      -1.940037       -52.7911
  24   2.0000      -1.936129       -52.6848
  25   2.0000      -1.936129       -52.6848
  26   2.0000      -1.038204       -28.2510
  27   2.0000      -0.956445       -26.0262
  28   2.0000      -0.945579       -25.7305
  29   2.0000      -0.925000       -25.1705
  30   2.0000      -0.924740       -25.1635
  31   2.0000      -0.922545       -25.1037
  32   2.0000      -0.510673       -13.8961
  33   2.0000      -0.480492       -13.0749
  34   2.0000      -0.455721       -12.4008
  35   2.0000      -0.448192       -12.1959
  36   2.0000      -0.427640       -11.6367
  37   2.0000      -0.394537       -10.7359
  38   2.0000      -0.384947       -10.4750
  39   2.0000      -0.375118       -10.2075
  40   2.0000      -0.374236       -10.1835
  41   2.0000      -0.335604        -9.1323
  42   2.0000      -0.331670        -9.0252
  43   2.0000      -0.323725        -8.8090
  44   2.0000      -0.322526        -8.7764
  45   2.0000      -0.312979        -8.5166
  46   2.0000      -0.308488        -8.3944
  47   2.0000      -0.290674        -7.9096
  48   2.0000      -0.290319        -7.9000
  49   2.0000      -0.283259        -7.7079
  50   0.0000      -0.092560        -2.5187
  51   0.0000      -0.079317        -2.1583
  52   0.0000       0.023278         0.6334
  53   0.0000       0.024868         0.6767
  54   0.0000       0.037356         1.0165

MULLIKEN ATOMIC CHARGES
-----------------------
   0 O :   -0.645779
   1 O :   -0.645778
   2 O :   -0.645779
   3 O :   -0.645778
   4 Si:    1.270500
   5 Si:    1.270500
   6 Mg:    0.703166
   7 Mg:    0.703165
   8 O :   -0.682108
   9 O :   -0.682108
Sum of atomic charges:   -0.0000000

LOEWDIN ATOMIC CHARGES
----------------------
   0 O :   -0.355662
   1 O :   -0.355662
   2 O :   -0.355662
   3 O :   -0.355662
   4 Si:    0.696444
   5 Si:    0.696445
   6 Mg:    0.304566
   7 Mg:    0.304566
   8 O :   -0.289686
   9 O :   -0.289686

  Mayer bond orders larger than 0.100000
B(  0-O ,  4-Si) :   1.2308 B(  0-O ,  6-Mg) :   0.7727 B(  1-O ,  5-Si) :   1.2308
B(  1-O ,  6-Mg) :   0.7727 B(  2-O ,  4-Si) :   1.2308 B(  2-O ,  7-Mg) :   0.7727
B(  3-O ,  5-Si) :   1.2308 B(  3-O ,  7-Mg) :   0.7727 B(  4-Si,  8-O ) :   0.6808
B(  4-Si,  9-O ) :   0.6808 B(  5-Si,  8-O ) :   0.6808 B(  5-Si,  9-O ) :   0.6808
B(  6-Mg,  8-O ) :   0.4500 B(  7-Mg,  9-O ) :   0.4500

FINAL SINGLE POINT ENERGY     -1429.352848326076

DIPOLE MOMENT
-------------
                                X             Y             Z
Electronic contribution:      0.00000       0.00000       0.00000
Nuclear contribution   :      0.00000      -0.00000      -0.00000
                        -----------------------------------------
Total Dipole Moment    :      0.00000       0.00000       0.00000
                        -----------------------------------------
Magnitude (a.u.)       :      0.00000
Magnitude (Debye)      :      0.00001

VIBRATIONAL FREQUENCIES
-----------------------

Scaling factor for frequencies =  1.000000000  (already applied!)

   0:         0.00 cm**-1
   1:         0.00 cm**-1
   2:         0.00 cm**-1
   3:         0.00 cm**-1
   4:         0.00 cm**-1
   5:         0.00 cm**-1
   6:       119.13 cm**-1
   7:       214.51 cm**-1
   8:       258.90 cm**-1
   9:       309.25 cm**-1
  10:       323.16 cm**-1
  11:       338.22 cm**-1
  12:       376.58 cm**-1
  13:       385.36 cm**-1
  14:       398.35 cm**-1
  15:       420.66 cm**-1
  16:       469.66 cm**-1
  17:       519.99 cm**-1
  18:       535.05 cm**-1
  19:       566.00 cm**-1
  20:       573.81 cm**-1
  21:       610.37 cm**-1
  22:       623.62 cm**-1
  23:       746.78 cm**-1
  24:       757.36 cm**-1
  25:       765.95 cm**-1
  26:       837.25 cm**-1
  27:       914.96 cm**-1
  28:      1097.36 cm**-1
  29:      1130.15 cm**-1

IR SPECTRUM
-----------

 Mode   freq       eps      Int      T**2         TX        TY        TZ
       cm**-1   L/(mol*cm) km/mol    a.u.
----------------------------------------------------------------------------
  6:    119.13   0.010590   53.52  0.027742  ( 0.005479 -0.000000  0.166468)
  7:    214.51   0.000000    0.00  0.000000  ( 0.000000  0.000000  0.000000)
  8:    258.90   0.000963    4.87  0.001161  ( 0.000000 -0.034067  0.000000)
  9:    309.25   0.003753   18.97  0.003787  (-0.046119  0.000000 -0.040745)
 10:    323.16   0.000000    0.00  0.000000  (-0.000000  0.000000 -0.000000)
 11:    338.22   0.000034    0.17  0.000031  ( 0.000000 -0.005563 -0.000000)
 12:    376.58   0.000000    0.00  0.000000  ( 0.000000 -0.000000 -0.000000)
 13:    385.36   0.013742   69.44  0.011128  ( 0.077150  0.000000 -0.071943)
 14:    398.35   0.000000    0.00  0.000000  ( 0.000000  0.000000 -0.000001)
 15:    420.66   0.000000    0.00  0.000000  ( 0.000000  0.000000 -0.000000)
 16:    469.66   0.049304  249.16  0.032760  (-0.172044  0.000000 -0.056220)
 17:    519.99   0.000000    0.00  0.000000  (-0.000000 -0.000001 -0.000000)
 18:    535.05   0.000000    0.00  0.000000  ( 0.000000  0.000000  0.000000)
 19:    566.00   0.000000    0.00  0.000000  (-0.000000 -0.000002 -0.000000)
 20:    573.81   0.015173   76.68  0.008252  ( 0.000000 -0.090839  0.000000)
 21:    610.37   0.013527   68.36  0.006916  ( 0.083161  0.000000  0.000510)
 22:    623.62   0.000000    0.00  0.000000  (-0.000001 -0.000000  0.000000)
 23:    746.78   0.000000    0.00  0.000000  ( 0.000000 -0.000005  0.000001)
 24:    757.36   0.104144  526.30  0.042912  (-0.000000 -0.207152 -0.000005)
 25:    765.95   0.075085  379.45  0.030591  (-0.004138  0.000006 -0.174854)
 26:    837.25   0.037388  188.94  0.013936  (-0.000000 -0.118049  0.000000)
 27:    914.96   0.000000    0.00  0.000000  ( 0.000000 -0.000000 -0.000000)
 28:   1097.36   0.000000    0.00  0.000000  (-0.000003  0.000000  0.000000)
 29:   1130.15   0.151413  765.18  0.041809  (-0.204473  0.000000  0.000240)

--------------------------
THERMOCHEMISTRY AT 298.15K
--------------------------

Temperature         ... 298.15 K
Pressure            ... 1.00 atm
Total Mass          ... 200.78 AMU

Throughout the following assumptions are being made:
  (1) The electronic state is orbitally nondegenerate
  (2) There are no thermally accessible electronically excited states
  (3) Hindered rotations indicated by low frequency modes are not
      treated as such but are treated as vibrations and this may
      cause some error
  (4) All equations used are the standard statistical mechanics
      equations for an ideal gas
  (5) All vibrations are strictly harmonic

freq.     119.13  E(vib)   ...       0.44
freq.     214.51  E(vib)   ...       0.34
freq.     258.90  E(vib)   ...       0.30
freq.     309.25  E(vib)   ...       0.26
freq.     323.16  E(vib)   ...       0.25
freq.     338.22  E(vib)   ...       0.24
freq.     376.58  E(vib)   ...       0.21
freq.     385.36  E(vib)   ...       0.20
freq.     398.35  E(vib)   ...       0.20
freq.     420.66  E(vib)   ...       0.18
freq.     469.66  E(vib)   ...       0.16
freq.     519.99  E(vib)   ...       0.13
freq.     535.05  E(vib)   ...       0.13
freq.     566.00  E(vib)   ...       0.11
freq.     573.81  E(vib)   ...       0.11
freq.     610.37  E(vib)   ...       0.10
freq.     623.62  E(vib)   ...       0.09
freq.     746.78  E(vib)   ...       0.06
freq.     757.36  E(vib)   ...       0.06
freq.     765.95  E(vib)   ...       0.06
freq.     837.25  E(vib)   ...       0.04
freq.     914.96  E(vib)   ...       0.03
freq.    1097.36  E(vib)   ...       0.02
freq.    1130.15  E(vib)   ...       0.01

------------
INNER ENERGY
------------

The inner energy is: U= E(el) + E(ZPE) + E(vib) + E(rot) + E(trans)
    E(el)   - is the total energy from the electronic structure calculation
              = E(kin-el) + E(nuc-el) + E(el-el) + E(nuc-nuc)
    E(ZPE)  - the the zero temperature vibrational energy from the frequency calculation
    E(vib)  - the the finite temperature correction to E(ZPE) due to population
              of excited vibrational states
    E(rot)  - is the rotational thermal energy
    E(trans)- is the translational thermal energy

Summary of contributions to the inner energy U:
Electronic energy                ...  -1429.35284833 Eh
Zero point energy                ...      0.03028239 Eh      19.00 kcal/mol
Thermal vibrational correction   ...      0.00589956 Eh       3.70 kcal/mol
Thermal rotational correction    ...      0.00141627 Eh       0.89 kcal/mol
Thermal translational correction ...      0.00141627 Eh       0.89 kcal/mol
-----------------------------------------------------------------------
Total thermal energy                  -1429.31383384 Eh

Summary of corrections to the electronic energy:
(perhaps to be used in another calculation)
Total thermal correction                  0.00873210 Eh       5.48 kcal/mol
Non-thermal (ZPE) correction              0.03028239 Eh      19.00 kcal/mol
-----------------------------------------------------------------------
Total correction                          0.03901449 Eh      24.48 kcal/mol

--------
ENTHALPY
--------

The enthalpy is H = U + kB*T
                kB is Boltzmann's constant
Total free energy                 ...  -1429.31383384 Eh
Thermal Enthalpy correction       ...      0.00094421 Eh       0.59 kcal/mol
-----------------------------------------------------------------------
Total Enthalpy                    ...  -1429.31288963 Eh

Note: Rotational entropy computed according to Herzberg
Infrared and Raman Spectra, Chapter V,1, Van Nostrand Reinhold, 1945
Point Group:  C2h, Symmetry Number:   2
Rotational constants in cm-1:     0.048813     0.038843     0.024666

Vibrational entropy computed according to the QRRHO of S. Grimme
Chem.Eur.J. 2012 18 9955

-------
ENTROPY
-------

The entropy contributions are T*S = T*(S(el)+S(vib)+S(rot)+S(trans))
     S(el)   - electronic entropy
     S(vib)  - vibrational entropy
     S(rot)  - rotational entropy
     S(trans)- translational entropy
The entropies will be listed as multiplied by the temperature to get
units of energy

Electronic entropy                ...      0.00000000 Eh      0.00 kcal/mol
Vibrational entropy               ...      0.00923284 Eh      5.79 kcal/mol
Rotational entropy                ...      0.01356325 Eh      8.51 kcal/mol
Translational entropy             ...      0.01985841 Eh     12.46 kcal/mol
-----------------------------------------------------------------------
Final entropy term                ...      0.04265450 Eh     26.77 kcal/mol

In case the symmetry of your molecule has not been determined correctly
or in case you have a reason to use a different symmetry number we print
out the resulting rotational entropy values for sn=1,12 :
 --------------------------------------------------------
|  sn= 1 | S(rot)=       0.01421771 Eh      8.92 kcal/mol|
|  sn= 2 | S(rot)=       0.01356325 Eh      8.51 kcal/mol|
|  sn= 3 | S(rot)=       0.01318042 Eh      8.27 kcal/mol|
|  sn= 4 | S(rot)=       0.01290879 Eh      8.10 kcal/mol|
|  sn= 5 | S(rot)=       0.01269811 Eh      7.97 kcal/mol|
|  sn= 6 | S(rot)=       0.01252596 Eh      7.86 kcal/mol|
|  sn= 7 | S(rot)=       0.01238042 Eh      7.77 kcal/mol|
|  sn= 8 | S(rot)=       0.01225434 Eh      7.69 kcal/mol|
|  sn= 9 | S(rot)=       0.01214313 Eh      7.62 kcal/mol|
|  sn=10 | S(rot)=       0.01204365 Eh      7.56 kcal/mol|
|  sn=11 | S(rot)=       0.01195366 Eh      7.50 kcal/mol|
|  sn=12 | S(rot)=       0.01187150 Eh      7.45 kcal/mol|
 --------------------------------------------------------

-------------------
GIBBS FREE ENERGY
-------------------

The Gibbs free energy is G = H - T*S

Total enthalpy                    ...  -1429.31288963 Eh
Total entropy correction          ...     -0.04265450 Eh    -26.77 kcal/mol
-----------------------------------------------------------------------
Final Gibbs free energy         ...  -1429.35554413 Eh

For completeness - the Gibbs free energy minus the electronic energy
G-E(el)                           ...     -0.00269580 Eh     -1.69 kcal/mol

                             ****ORCA TERMINATED NORMALLY****
TOTAL RUN TIME: 0 days 0 hours 1 minutes 15 seconds 915 msec
